Program Version,EnergyPlus, Version 9.4.0-998c4b761e, YMD=2022.06.28 12:25
1,5,Environment Title[],Latitude[deg],Longitude[deg],Time Zone[],Elevation[m]
2,8,Day of Simulation[],Month[],Day of Month[],DST Indicator[1=yes 0=no],Hour[],StartMinute[],EndMinute[],DayType
3,5,Cumulative Day of Simulation[],Month[],Day of Month[],DST Indicator[1=yes 0=no],DayType  ! When Daily Report Variables Requested
4,2,Cumulative Days of Simulation[],Month[]  ! When Monthly Report Variables Requested
5,1,Cumulative Days of Simulation[] ! When Run Period Report Variables Requested
6,1,Calendar Year of Simulation[] ! When Annual Report Variables Requested
7,1,Environment,Site Outdoor Air Drybulb Temperature [C] !Hourly
594,1,1_ZONE1,Zone Air Temperature [C] !Hourly
635,1,0_ZONE1,Zone Air Temperature [C] !Hourly
676,1,0_ZONE2,Zone Air Temperature [C] !Hourly
1002,1,VRF_1_ZONE1 VRF HEAT PUMP,VRF Heat Pump COP [] !Hourly
1004,1,VRF_1_ZONE1 VRF HEAT PUMP,VRF Heat Pump Part Load Ratio [] !Hourly
1008,1,VRF_0_ZONE1 VRF HEAT PUMP,VRF Heat Pump COP [] !Hourly
1010,1,VRF_0_ZONE1 VRF HEAT PUMP,VRF Heat Pump Part Load Ratio [] !Hourly
1014,1,VRF_0_ZONE2 VRF HEAT PUMP,VRF Heat Pump COP [] !Hourly
1016,1,VRF_0_ZONE2 VRF HEAT PUMP,VRF Heat Pump Part Load Ratio [] !Hourly
End of Data Dictionary
1,CUSTOMRUN,  33.60, 130.40,   9.00,   3.00
2,1, 1, 1, 0, 1, 0.00,60.00,Wednesday
7,11.650000000000004
594,13.24977028646066
635,13.07102931252429
676,13.408566136784059
1002,0.0
1004,0.0
1008,0.0
1010,0.0
1014,0.0
1016,0.0
2,1, 1, 1, 0, 2, 0.00,60.00,Wednesday
7,11.025
594,12.297875220465662
635,12.517917810332789
676,12.78140880218478
1002,0.0
1004,0.0
1008,0.0
1010,0.0
1014,0.0
1016,0.0
2,1, 1, 1, 0, 3, 0.00,60.00,Wednesday
7,9.991666666666668
594,11.295539459052114
635,11.784203870057589
676,12.026128160790196
1002,0.0
1004,0.0
1008,0.0
1010,0.0
1014,0.0
1016,0.0
2,1, 1, 1, 0, 4, 0.00,60.00,Wednesday
7,9.35
594,10.374388567276247
635,11.340088778429499
676,11.52007093512737
1002,0.0
1004,0.0
1008,0.0
1010,0.0
1014,0.0
1016,0.0
2,1, 1, 1, 0, 5, 0.00,60.00,Wednesday
7,8.808333333333334
594,9.580302619958406
635,11.044536195287302
676,11.152258225465113
1002,0.0
1004,0.0
1008,0.0
1010,0.0
1014,0.0
1016,0.0
2,1, 1, 1, 0, 6, 0.00,60.00,Wednesday
7,8.424999999999999
594,8.923419908539766
635,10.85125973675553
676,10.889001517997885
1002,0.0
1004,0.0
1008,0.0
1010,0.0
1014,0.0
1016,0.0
2,1, 1, 1, 0, 7, 0.00,60.00,Wednesday
7,8.183333333333334
594,21.85129172905293
635,21.678308126670204
676,21.640456460484008
1002,2.604453793713364
1004,0.40081790743979336
1008,2.4505473248779205
1010,0.35048159400724296
1014,2.6178096379497988
1016,0.4266516210492132
2,1, 1, 1, 0, 8, 0.00,60.00,Wednesday
7,8.041666666666666
594,22.001289387331175
635,22.000620789541768
676,22.000594456337667
1002,2.4350801956242824
1004,0.30315463990353549
1008,2.236679642126549
1010,0.25
1014,2.335920032692912
1016,0.2643453993485296
2,1, 1, 1, 0, 9, 0.00,60.00,Wednesday
7,8.233333333333333
594,22.001603823620774
635,22.017081253648244
676,22.00047733621061
1002,2.169247555526995
1004,0.25
1008,1.7173508279361396
1010,0.20833333333333335
1014,2.2052373013829844
1016,0.25
2,1, 1, 1, 0,10, 0.00,60.00,Wednesday
7,9.1
594,22.199516427863725
635,23.402931626789113
676,22.000374248666735
1002,1.3764282307119347
1004,0.16666666666666667
1008,0.0
1010,0.0
1014,2.1590663770993419
1016,0.25
2,1, 1, 1, 0,11, 0.00,60.00,Wednesday
7,10.65
594,24.555009153957657
635,25.236425006500246
676,23.277725774870644
1002,0.0
1004,0.0
1008,0.0
1010,0.0
1014,0.34992424716187717
1016,0.041666666666666667
2,1, 1, 1, 0,12, 0.00,60.00,Wednesday
7,12.508333333333333
594,25.993410928855565
635,25.91164543818533
676,25.91519149052036
1002,2.114335758814503
1004,0.23611111111111114
1008,0.5426116594638414
1010,0.125
1014,1.8917780945518433
1016,0.20138888888888893
2,1, 1, 1, 0,13, 0.00,60.00,Wednesday
7,14.291666666666666
594,25.997534010633819
635,25.671466495086649
676,25.99860263618839
1002,2.3517602730140285
1004,0.25
1008,0.0
1010,0.0
1014,2.7523850092071204
1016,0.25
2,1, 1, 1, 0,14, 0.00,60.00,Wednesday
7,15.758333333333333
594,25.995329749360918
635,25.966054212523074
676,25.998906569035566
1002,2.625473016272922
1004,0.25
1008,1.7108531565537065
1010,0.20833333333333335
1014,2.727597332172481
1016,0.25
2,1, 1, 1, 0,15, 0.00,60.00,Wednesday
7,16.533333333333336
594,25.995308847536806
635,25.976390112942388
676,25.999655690727179
1002,2.6348725388064149
1004,0.25
1008,1.2993169468874444
1010,0.16666666666666667
1014,2.5567885564868835
1016,0.25
2,1, 1, 1, 0,16, 0.00,60.00,Wednesday
7,16.641666666666667
594,25.996962126930727
635,25.066180504968416
676,26.000117418693376
1002,2.5025034714614375
1004,0.25
1008,0.0
1010,0.0
1014,2.0611570704851958
1016,0.25
2,1, 1, 1, 0,17, 0.00,60.00,Wednesday
7,16.483333333333336
594,25.873817455549788
635,22.638248452507744
676,24.44261575518661
1002,1.3879653266174604
1004,0.16666666666666667
1008,0.0
1010,0.0
1014,0.0
1016,0.0
2,1, 1, 1, 0,18, 0.00,60.00,Wednesday
7,16.166666666666669
594,22.9215119945749
635,20.154145333965329
676,21.208595759323598
1002,0.25144218066198029
1004,0.024999999999999999
1008,0.37100082203244807
1010,0.045833333333333347
1014,0.27782541594907936
1016,0.037500000000000009
2,1, 1, 1, 0,19, 0.00,60.00,Wednesday
7,15.65
594,22.001313571065283
635,22.000777054577556
676,22.000677581381927
1002,2.548532256718362
1004,0.25
1008,2.726463148924912
1010,0.25
1014,2.684717120968516
1016,0.25
2,1, 1, 1, 0,20, 0.00,60.00,Wednesday
7,14.991666666666668
594,22.00209841248021
635,22.0009174852122
676,22.000833943401799
1002,2.5727566553859226
1004,0.25
1008,2.722585987439505
1010,0.25
1014,2.6958915453928937
1016,0.25
2,1, 1, 1, 0,21, 0.00,60.00,Wednesday
7,14.291666666666666
594,22.002512290027327
635,22.00095776973198
676,22.000874296972886
1002,2.5846508029576404
1004,0.25
1008,2.7031079658125547
1010,0.25
1014,2.683101756043049
1016,0.25
2,1, 1, 1, 0,22, 0.00,60.00,Wednesday
7,13.475
594,22.002641012243545
635,22.001002368854644
676,22.000911672203995
1002,2.5779245673988195
1004,0.25
1008,2.676636684100309
1010,0.25
1014,2.6623047324444637
1016,0.25
2,1, 1, 1, 0,23, 0.00,60.00,Wednesday
7,12.575000000000001
594,16.652139963324843
635,17.527503866457093
676,17.59468367902984
1002,0.0
1004,0.0
1008,0.0
1010,0.0
1014,0.0
1016,0.0
2,1, 1, 1, 0,24, 0.00,60.00,Wednesday
7,11.675000000000003
594,14.699936516879426
635,14.237384050026597
676,14.594090703914582
1002,0.0
1004,0.0
1008,0.0
1010,0.0
1014,0.0
1016,0.0
2,2, 1, 2, 0, 1, 0.00,60.00,Thursday
7,10.775000000000004
594,13.138897619305804
635,13.117895514728352
676,13.403642643135092
1002,0.0
1004,0.0
1008,0.0
1010,0.0
1014,0.0
1016,0.0
2,2, 1, 2, 0, 2, 0.00,60.00,Thursday
7,9.933333333333334
594,12.041931467148203
635,12.911840820392412
676,12.974315901349052
1002,0.0
1004,0.0
1008,0.0
1010,0.0
1014,0.0
1016,0.0
2,2, 1, 2, 0, 3, 0.00,60.00,Thursday
7,9.133333333333333
594,11.10361142477876
635,12.703815412394624
676,12.621162315960936
1002,0.0
1004,0.0
1008,0.0
1010,0.0
1014,0.0
1016,0.0
2,2, 1, 2, 0, 4, 0.00,60.00,Thursday
7,8.450000000000001
594,10.224928153006795
635,12.383116162472755
676,12.214044788145117
1002,0.0
1004,0.0
1008,0.0
1010,0.0
1014,0.0
1016,0.0
2,2, 1, 2, 0, 5, 0.00,60.00,Thursday
7,7.8500000000000009
594,9.422257114987936
635,12.056785701233592
676,11.827901482653358
1002,0.0
1004,0.0
1008,0.0
1010,0.0
1014,0.0
1016,0.0
2,2, 1, 2, 0, 6, 0.00,60.00,Thursday
7,7.366666666666667
594,8.697771163764556
635,11.747104975999818
676,11.470441024684524
1002,0.0
1004,0.0
1008,0.0
1010,0.0
1014,0.0
1016,0.0
2,2, 1, 2, 0, 7, 0.00,60.00,Thursday
7,7.083333333333333
594,21.839996861692258
635,21.738115597562133
676,21.694207172190774
1002,2.745267285717828
1004,0.4084449923960074
1008,2.4514245202278146
1010,0.31867787244494336
1014,2.658592165639866
1016,0.40022834070991766
2,2, 1, 2, 0, 8, 0.00,60.00,Thursday
7,6.941666666666666
594,22.000738684565336
635,22.000463127389169
676,22.000383048317265
1002,2.5864843703791
1004,0.3101082643612976
1008,2.3656731334477998
1010,0.25
1014,2.420867909877316
1016,0.2535459792605396
2,2, 1, 2, 0, 9, 0.00,60.00,Thursday
7,7.133333333333333
594,22.00168802921493
635,22.00047218390061
676,22.000392128780026
1002,2.3709809399117178
1004,0.25
1008,2.3139247794874975
1010,0.25
1014,2.350600738565666
1016,0.25
2,2, 1, 2, 0,10, 0.00,60.00,Thursday
7,8.0
594,22.003554627916697
635,22.00065192702101
676,22.0005090173707
1002,2.36994356853964
1004,0.25
1008,2.338854770647278
1010,0.25
1014,2.354828549033994
1016,0.25
2,2, 1, 2, 0,11, 0.00,60.00,Thursday
7,9.433333333333334
594,22.00347284234223
635,22.000737424016735
676,22.000526633510039
1002,2.4011145319982094
1004,0.25
1008,2.3947729839624576
1010,0.25
1014,2.3823122596914776
1016,0.25
2,2, 1, 2, 0,12, 0.00,60.00,Thursday
7,11.208333333333334
594,22.002525583496035
635,22.00073811015183
676,22.000474225561395
1002,2.4449586112941135
1004,0.25
1008,2.4652454644687205
1010,0.25
1014,2.4280717062503824
1016,0.25
2,2, 1, 2, 0,13, 0.00,60.00,Thursday
7,12.991666666666668
594,22.00246968345097
635,22.000838578674267
676,22.000541827310216
1002,2.53868158447767
1004,0.25
1008,2.568854615944572
1010,0.25
1014,2.5160019883715436
1016,0.25
2,2, 1, 2, 0,14, 0.00,60.00,Thursday
7,14.341666666666667
594,22.00119353114219
635,22.000514831718847
676,22.00032399262766
1002,2.5311617339895258
1004,0.25
1008,2.591744502847535
1010,0.25
1014,2.535652552136869
1016,0.25
2,2, 1, 2, 0,15, 0.00,60.00,Thursday
7,15.033333333333334
594,22.000652608694428
635,22.000419835393417
676,22.00025594384262
1002,2.535020555356639
1004,0.25
1008,2.613430179118039
1010,0.25
1014,2.5560167122692989
1016,0.25
2,2, 1, 2, 0,16, 0.00,60.00,Thursday
7,15.141666666666666
594,22.000643036945396
635,22.00046384563579
676,22.000371666343296
1002,2.5389803255466796
1004,0.25
1008,2.6253556742365764
1010,0.25
1014,2.585153170628795
1016,0.25
2,2, 1, 2, 0,17, 0.00,60.00,Thursday
7,14.924999999999999
594,22.000765114926357
635,22.000512824948556
676,22.000487221241206
1002,2.534126019598503
1004,0.25
1008,2.6208244344282778
1010,0.25
1014,2.598362458690617
1016,0.25
2,2, 1, 2, 0,18, 0.00,60.00,Thursday
7,14.508333333333335
594,22.00204795739295
635,22.000859669684855
676,22.000760811076316
1002,2.5827463956500789
1004,0.25
1008,2.6491036279592126
1010,0.25
1014,2.6316939963732675
1016,0.25
2,2, 1, 2, 0,19, 0.00,60.00,Thursday
7,13.891666666666666
594,22.002684644523908
635,22.001067951594178
676,22.000928059625399
1002,2.585439388844927
1004,0.25
1008,2.6368542412243998
1010,0.25
1014,2.624804537420907
1016,0.25
2,2, 1, 2, 0,20, 0.00,60.00,Thursday
7,13.133333333333333
594,22.002775134815665
635,22.00115762095837
676,22.001003646562127
1002,2.5635715712582378
1004,0.25
1008,2.6004725761221847
1010,0.25
1014,2.5948104341128794
1016,0.25
2,2, 1, 2, 0,21, 0.00,60.00,Thursday
7,12.216666666666669
594,22.002759218254068
635,22.001236075197949
676,22.001066947850395
1002,2.525999847089482
1004,0.25
1008,2.5503949568431656
1010,0.25
1014,2.550995326114119
1016,0.25
2,2, 1, 2, 0,22, 0.00,60.00,Thursday
7,11.158333333333332
594,22.002704467173417
635,22.00132105316402
676,22.00113297237425
1002,2.477028614261626
1004,0.25
1008,2.4918362977975589
1010,0.25
1014,2.4988673208921416
1016,0.25
2,2, 1, 2, 0,23, 0.00,60.00,Thursday
7,10.058333333333334
594,15.682865933904234
635,17.654761937449938
676,17.484910992323653
1002,0.0
1004,0.0
1008,0.0
1010,0.0
1014,0.0
1016,0.0
2,2, 1, 2, 0,24, 0.00,60.00,Thursday
7,8.9
594,13.341786451410537
635,14.356267930915246
676,14.363136373506757
1002,0.0
1004,0.0
1008,0.0
1010,0.0
1014,0.0
1016,0.0
2,3, 1, 3, 0, 1, 0.00,60.00,Friday
7,7.758333333333333
594,11.411368929857679
635,12.964688758661298
676,12.897006165423429
1002,0.0
1004,0.0
1008,0.0
1010,0.0
1014,0.0
1016,0.0
2,3, 1, 3, 0, 2, 0.00,60.00,Friday
7,6.658333333333334
594,9.807672651810022
635,11.938535972508492
676,11.770319570851788
1002,0.0
1004,0.0
1008,0.0
1010,0.0
1014,0.0
1016,0.0
2,3, 1, 3, 0, 3, 0.00,60.00,Friday
7,5.675000000000001
594,8.444190669208302
635,11.21081521317497
676,10.955127980541099
1002,0.0
1004,0.0
1008,0.0
1010,0.0
1014,0.0
1016,0.0
2,3, 1, 3, 0, 4, 0.00,60.00,Friday
7,4.7749999999999999
594,7.271707157104319
635,10.613760263787837
676,10.289207630077465
1002,0.0
1004,0.0
1008,0.0
1010,0.0
1014,0.0
1016,0.0
2,3, 1, 3, 0, 5, 0.00,60.00,Friday
7,3.991666666666667
594,6.1594147901638609
635,10.062303883392718
676,9.669147999729065
1002,0.0
1004,0.0
1008,0.0
1010,0.0
1014,0.0
1016,0.0
2,3, 1, 3, 0, 6, 0.00,60.00,Friday
7,3.4083333333333338
594,5.200876176442239
635,9.614898710109286
676,9.16779797063321
1002,0.0
1004,0.0
1008,0.0
1010,0.0
1014,0.0
1016,0.0
2,3, 1, 3, 0, 7, 0.00,60.00,Friday
7,3.025
594,21.07854071373852
635,21.272085148612569
676,21.10447371723786
1002,1.677523072215342
1004,0.8424551136717723
1008,1.545302406191509
1010,0.5946658566770235
1014,1.646065977082377
1016,0.7771369616404167
2,3, 1, 3, 0, 8, 0.00,60.00,Friday
7,2.841666666666667
594,21.98904392570148
635,22.000597906048485
676,22.000461240053054
1002,1.6046284052735614
1004,0.6852059168829204
1008,1.3078360735239243
1010,0.38440191448404456
1014,1.4404894494308112
1016,0.5023967326513106
2,3, 1, 3, 0, 9, 0.00,60.00,Friday
7,3.033333333333333
594,22.000914632242386
635,22.00058068724813
676,22.000464668491035
1002,1.46135480748692
1004,0.5035274181257147
1008,1.1566545969254228
1010,0.3024412354325438
1014,1.3162534206278383
1016,0.40190285894379648
2,3, 1, 3, 0,10, 0.00,60.00,Friday
7,3.9
594,22.002276592304797
635,22.000754793932459
676,22.00056358968963
1002,1.3679783288904076
1004,0.4185099329332776
1008,1.0826292871836878
1010,0.2651092988316971
1014,1.2279240719739007
1016,0.3416905538760771
2,3, 1, 3, 0,11, 0.00,60.00,Friday
7,5.391666666666667
594,22.003249168399774
635,22.00087253492136
676,22.0006180012416
1002,1.8692603893041214
1004,0.2897174765736052
1008,1.7537444772123896
1010,0.25
1014,1.8048837178349564
1016,0.2671193329602553
2,3, 1, 3, 0,12, 0.00,60.00,Friday
7,7.208333333333333
594,22.00439652092167
635,22.000955196548494
676,22.000659621526724
1002,2.208351501286751
1004,0.25
1008,2.177922271372442
1010,0.25
1014,2.18178414262149
1016,0.25
2,3, 1, 3, 0,13, 0.00,60.00,Friday
7,9.049999999999999
594,22.004836027869275
635,22.001122475337785
676,22.000754186979099
1002,2.3262786223284874
1004,0.25
1008,2.3030579090370746
1010,0.25
1014,2.294134118526021
1016,0.25
2,3, 1, 3, 0,14, 0.00,60.00,Friday
7,10.5
594,22.00346008859599
635,22.000931506879796
676,22.00064590557984
1002,2.3453771664789939
1004,0.25
1008,2.350515543447927
1010,0.25
1014,2.336196778876396
1016,0.25
2,3, 1, 3, 0,15, 0.00,60.00,Friday
7,11.233333333333335
594,22.00277747335871
635,22.000943401590435
676,22.000685270212988
1002,2.3543595095988656
1004,0.25
1008,2.3782342844179196
1010,0.25
1014,2.358411574265984
1016,0.25
2,3, 1, 3, 0,16, 0.00,60.00,Friday
7,11.341666666666669
594,22.002659497876633
635,22.00099026253298
676,22.00086195056763
1002,2.3536375213115625
1004,0.25
1008,2.3890368420376055
1010,0.25
1014,2.3806507493021078
1016,0.25
2,3, 1, 3, 0,17, 0.00,60.00,Friday
7,11.183333333333336
594,22.00273006226421
635,22.001042215703437
676,22.000978091225137
1002,2.348997723682008
1004,0.25
1008,2.3871955686094417
1010,0.25
1014,2.393203445779676
1016,0.25
2,3, 1, 3, 0,18, 0.00,60.00,Friday
7,10.924999999999999
594,22.003945692557335
635,22.00140429793792
676,22.00125604381149
1002,2.4022275129738754
1004,0.25
1008,2.4202596351185718
1010,0.25
1014,2.430215203211741
1016,0.25
2,3, 1, 3, 0,19, 0.00,60.00,Friday
7,10.566666666666667
594,22.0042966980634
635,22.001579724422624
676,22.001383694576544
1002,2.416584529050695
1004,0.25
1008,2.42127918996917
1010,0.25
1014,2.4344487018813365
1016,0.25
2,3, 1, 3, 0,20, 0.00,60.00,Friday
7,10.108333333333333
594,22.00381113947522
635,22.00159834303859
676,22.001388943609745
1002,2.4009336090131727
1004,0.25
1008,2.3974270189330375
1010,0.25
1014,2.414053521347664
1016,0.25
2,3, 1, 3, 0,21, 0.00,60.00,Friday
7,9.549999999999999
594,22.003402405052538
635,22.001614192011716
676,22.001394375009754
1002,2.3825549250062045
1004,0.25
1008,2.36959328063973
1010,0.25
1014,2.3905824860308164
1016,0.25
2,3, 1, 3, 0,22, 0.00,60.00,Friday
7,8.950000000000001
594,22.003051841863955
635,22.001622603815265
676,22.00139144300365
1002,2.3623741375311897
1004,0.25
1008,2.340647065871941
1010,0.25
1014,2.365579361442682
1016,0.25
2,3, 1, 3, 0,23, 0.00,60.00,Friday
7,8.291666666666666
594,14.33673422877576
635,17.09670502567575
676,16.858752110930579
1002,0.0
1004,0.0
1008,0.0
1010,0.0
1014,0.0
1016,0.0
2,3, 1, 3, 0,24, 0.00,60.00,Friday
7,7.591666666666666
594,11.899010722692724
635,13.564006807111028
676,13.50197992039135
1002,0.0
1004,0.0
1008,0.0
1010,0.0
1014,0.0
1016,0.0
2,4, 1, 4, 0, 1, 0.00,60.00,Saturday
7,6.95
594,10.189934102472544
635,12.248758279615979
676,12.13447160587961
1002,0.0
1004,0.0
1008,0.0
1010,0.0
1014,0.0
1016,0.0
2,4, 1, 4, 0, 2, 0.00,60.00,Saturday
7,6.291666666666667
594,8.923789967945874
635,11.451897627112514
676,11.25518870953515
1002,0.0
1004,0.0
1008,0.0
1010,0.0
1014,0.0
1016,0.0
2,4, 1, 4, 0, 3, 0.00,60.00,Saturday
7,5.6499999999999999
594,7.8322709681030109
635,10.927714601940743
676,10.646744992205545
1002,0.0
1004,0.0
1008,0.0
1010,0.0
1014,0.0
1016,0.0
2,4, 1, 4, 0, 4, 0.00,60.00,Saturday
7,5.108333333333333
594,6.899854202034509
635,10.517829889321865
676,10.170401121687784
1002,0.0
1004,0.0
1008,0.0
1010,0.0
1014,0.0
1016,0.0
2,4, 1, 4, 0, 5, 0.00,60.00,Saturday
7,4.666666666666667
594,6.117961155701554
635,10.18165997462059
676,9.785566272064618
1002,0.0
1004,0.0
1008,0.0
1010,0.0
1014,0.0
1016,0.0
2,4, 1, 4, 0, 6, 0.00,60.00,Saturday
7,4.325
594,5.464583055046155
635,9.913750335675113
676,9.479289939992123
1002,0.0
1004,0.0
1008,0.0
1010,0.0
1014,0.0
1016,0.0
2,4, 1, 4, 0, 7, 0.00,60.00,Saturday
7,4.083333333333333
594,21.29393029841142
635,21.355630203956893
676,21.22138076503981
1002,1.6799994860333856
1004,0.7869444861513949
1008,1.5435670403225792
1010,0.5557798538935598
1014,1.6535366979071853
1016,0.726321239635393
2,4, 1, 4, 0, 8, 0.00,60.00,Saturday
7,4.0
594,21.99025146253886
635,22.00060929041696
676,22.00047674848318
1002,1.6153349656025389
1004,0.6430576314638631
1008,1.3002081630770402
1010,0.3614687586339593
1014,1.4378555276880958
1016,0.46998804197941376
2,4, 1, 4, 0, 9, 0.00,60.00,Saturday
7,4.0
594,22.000536402726167
635,22.000560302961249
676,22.00044794810876
1002,1.525620933008918
1004,0.5257993298263927
1008,1.2273458571304117
1010,0.31979728782259417
1014,1.3663067596168424
1016,0.4104005569169076
2,4, 1, 4, 0,10, 0.00,60.00,Saturday
7,4.175
594,22.001118275723504
635,22.000612638457015
676,22.000467332093128
1002,1.4737047558212666
1004,0.44936354695597865
1008,1.1865489583467597
1010,0.2870665823968025
1014,1.3072878512087499
1016,0.35422907939284917
2,4, 1, 4, 0,11, 0.00,60.00,Saturday
7,4.4750000000000009
594,22.00159405134659
635,22.00071121976603
676,22.00052299121994
1002,1.4570176347885938
1004,0.39420289716218095
1008,1.173809371814049
1010,0.260238281670163
1014,1.2714601393140857
1016,0.3070389298127269
2,4, 1, 4, 0,12, 0.00,60.00,Saturday
7,4.833333333333333
594,22.00201028419001
635,22.000810558999736
676,22.000586543405207
1002,1.439154596322035
1004,0.3481694672689057
1008,1.1935374838582136
1010,0.25
1014,1.2441634290580952
1016,0.2711913486998905
2,4, 1, 4, 0,13, 0.00,60.00,Saturday
7,5.175000000000001
594,22.00224142525414
635,22.000907985189547
676,22.000637880390945
1002,2.1580671332077689
1004,0.2700996001881226
1008,2.044784518824859
1010,0.25
1014,2.0273379835040026
1016,0.25
2,4, 1, 4, 0,14, 0.00,60.00,Saturday
7,5.416666666666667
594,22.00209035867569
635,22.000932105263656
676,22.000660230023127
1002,2.1425830729890005
1004,0.2665805191821727
1008,2.0423093409924806
1010,0.25
1014,2.02571733220704
1016,0.25
2,4, 1, 4, 0,15, 0.00,60.00,Saturday
7,5.558333333333334
594,22.001943795447358
635,22.000947278811215
676,22.000689618080388
1002,2.149071308570051
1004,0.2697818319763677
1008,2.04600014623222
1010,0.25
1014,2.037079522259429
1016,0.25
2,4, 1, 4, 0,16, 0.00,60.00,Saturday
7,5.6000000000000009
594,22.001806976201825
635,22.000959398840626
676,22.000730030664497
1002,2.181334801752527
1004,0.2812444785448844
1008,2.058796738244431
1010,0.25
1014,2.0707273521861695
1016,0.2524005729908319
2,4, 1, 4, 0,17, 0.00,60.00,Saturday
7,5.541666666666667
594,22.001652720564694
635,22.000935671835149
676,22.00073184716737
1002,2.192717018717181
1004,0.28552197490649397
1008,2.0628244581799519
1010,0.25
1014,2.1041702681225087
1016,0.26168905111261717
2,4, 1, 4, 0,18, 0.00,60.00,Saturday
7,5.383333333333333
594,22.001497257992069
635,22.000909495589484
676,22.00071099812733
1002,2.2106026368236479
1004,0.2930476919394057
1008,2.0665012346273969
1010,0.25
1014,2.124345211205769
1016,0.26916173533228079
2,4, 1, 4, 0,19, 0.00,60.00,Saturday
7,5.183333333333334
594,12.481860171823753
635,15.317145646363182
676,15.107519797055746
1002,0.0
1004,0.0
1008,0.0
1010,0.0
1014,0.0
1016,0.0
2,4, 1, 4, 0,20, 0.00,60.00,Saturday
7,4.983333333333333
594,9.511476584863815
635,11.775237376354753
676,11.745776538080257
1002,0.0
1004,0.0
1008,0.0
1010,0.0
1014,0.0
1016,0.0
2,4, 1, 4, 0,21, 0.00,60.00,Saturday
7,4.7250000000000009
594,7.903987539794136
635,10.553145996611365
676,10.421957696751708
1002,0.0
1004,0.0
1008,0.0
1010,0.0
1014,0.0
1016,0.0
2,4, 1, 4, 0,22, 0.00,60.00,Saturday
7,4.366666666666666
594,6.731382692127212
635,9.983959995417685
676,9.736250366942136
1002,0.0
1004,0.0
1008,0.0
1010,0.0
1014,0.0
1016,0.0
2,4, 1, 4, 0,23, 0.00,60.00,Saturday
7,4.0249999999999999
594,5.77794374775758
635,9.631604942176521
676,9.286604278677713
1002,0.0
1004,0.0
1008,0.0
1010,0.0
1014,0.0
1016,0.0
2,4, 1, 4, 0,24, 0.00,60.00,Saturday
7,3.725
594,5.032829932021034
635,9.390126520514619
676,8.977342747892902
1002,0.0
1004,0.0
1008,0.0
1010,0.0
1014,0.0
1016,0.0
2,5, 1, 5, 0, 1, 0.00,60.00,Sunday
7,3.3666666666666669
594,4.402672630311116
635,9.198133192298949
676,8.73745895786461
1002,0.0
1004,0.0
1008,0.0
1010,0.0
1014,0.0
1016,0.0
2,5, 1, 5, 0, 2, 0.00,60.00,Sunday
7,3.025
594,3.860166822467812
635,9.000277921233542
676,8.511278652639163
1002,0.0
1004,0.0
1008,0.0
1010,0.0
1014,0.0
1016,0.0
2,5, 1, 5, 0, 3, 0.00,60.00,Sunday
7,2.725
594,3.379258210679046
635,8.82322723086821
676,8.310787540377346
1002,0.0
1004,0.0
1008,0.0
1010,0.0
1014,0.0
1016,0.0
2,5, 1, 5, 0, 4, 0.00,60.00,Sunday
7,2.4250000000000004
594,2.951634258337007
635,8.66112119473908
676,8.128671436593758
1002,0.0
1004,0.0
1008,0.0
1010,0.0
1014,0.0
1016,0.0
2,5, 1, 5, 0, 5, 0.00,60.00,Sunday
7,2.183333333333333
594,2.5651448863879078
635,8.511684369674472
676,7.961201830560461
1002,0.0
1004,0.0
1008,0.0
1010,0.0
1014,0.0
1016,0.0
2,5, 1, 5, 0, 6, 0.00,60.00,Sunday
7,2.0416666666666667
594,2.249454370624805
635,8.391697601859902
676,7.827193834700462
1002,0.0
1004,0.0
1008,0.0
1010,0.0
1014,0.0
1016,0.0
2,5, 1, 5, 0, 7, 0.00,60.00,Sunday
7,1.9416666666666667
594,2.3612574079712824
635,8.395440277817065
676,7.795500113009806
1002,0.0
1004,0.0
1008,0.0
1010,0.0
1014,0.0
1016,0.0
2,5, 1, 5, 0, 8, 0.00,60.00,Sunday
7,1.9000000000000002
594,2.260099875960908
635,8.418875614426117
676,7.797250011832969
1002,0.0
1004,0.0
1008,0.0
1010,0.0
1014,0.0
1016,0.0
2,5, 1, 5, 0, 9, 0.00,60.00,Sunday
7,2.0749999999999999
594,2.465327975074807
635,8.654068989142996
676,8.136699752720327
1002,0.0
1004,0.0
1008,0.0
1010,0.0
1014,0.0
1016,0.0
2,5, 1, 5, 0,10, 0.00,60.00,Sunday
7,2.783333333333333
594,3.123742478542907
635,9.278003300175856
676,8.926683110454697
1002,0.0
1004,0.0
1008,0.0
1010,0.0
1014,0.0
1016,0.0
2,5, 1, 5, 0,11, 0.00,60.00,Sunday
7,3.9583333333333337
594,4.338577733268541
635,10.343341062749069
676,10.371617292861867
1002,0.0
1004,0.0
1008,0.0
1010,0.0
1014,0.0
1016,0.0
2,5, 1, 5, 0,12, 0.00,60.00,Sunday
7,5.433333333333334
594,5.888250839069889
635,11.470806731655694
676,12.122364648884864
1002,0.0
1004,0.0
1008,0.0
1010,0.0
1014,0.0
1016,0.0
2,5, 1, 5, 0,13, 0.00,60.00,Sunday
7,6.858333333333333
594,7.442000765559494
635,12.495528893940929
676,13.800844623627797
1002,0.0
1004,0.0
1008,0.0
1010,0.0
1014,0.0
1016,0.0
2,5, 1, 5, 0,14, 0.00,60.00,Sunday
7,7.983333333333333
594,8.648158602207653
635,13.093581141971173
676,14.627648415990635
1002,0.0
1004,0.0
1008,0.0
1010,0.0
1014,0.0
1016,0.0
2,5, 1, 5, 0,15, 0.00,60.00,Sunday
7,8.575000000000001
594,9.333074311016008
635,13.2301354326596
676,14.601465445713205
1002,0.0
1004,0.0
1008,0.0
1010,0.0
1014,0.0
1016,0.0
2,5, 1, 5, 0,16, 0.00,60.00,Sunday
7,8.700000000000001
594,9.516214214357042
635,12.999898805427828
676,14.09109559605623
1002,0.0
1004,0.0
1008,0.0
1010,0.0
1014,0.0
1016,0.0
2,5, 1, 5, 0,17, 0.00,60.00,Sunday
7,8.583333333333334
594,9.34597846325706
635,12.598319709453959
676,13.253461027111515
1002,0.0
1004,0.0
1008,0.0
1010,0.0
1014,0.0
1016,0.0
2,5, 1, 5, 0,18, 0.00,60.00,Sunday
7,8.325000000000001
594,9.071621490052749
635,12.257573472959655
676,12.449253035953332
1002,0.0
1004,0.0
1008,0.0
1010,0.0
1014,0.0
1016,0.0
2,5, 1, 5, 0,19, 0.00,60.00,Sunday
7,7.908333333333334
594,8.41214245480858
635,11.919487006060493
676,11.866083453149331
1002,0.0
1004,0.0
1008,0.0
1010,0.0
1014,0.0
1016,0.0
2,5, 1, 5, 0,20, 0.00,60.00,Sunday
7,7.408333333333334
594,7.9623344992234419
635,11.622473601656536
676,11.444459519692148
1002,0.0
1004,0.0
1008,0.0
1010,0.0
1014,0.0
1016,0.0
2,5, 1, 5, 0,21, 0.00,60.00,Sunday
7,6.8500000000000009
594,7.497961764754458
635,11.32062602430076
676,11.074703700283108
1002,0.0
1004,0.0
1008,0.0
1010,0.0
1014,0.0
1016,0.0
2,5, 1, 5, 0,22, 0.00,60.00,Sunday
7,6.25
594,6.989165650355851
635,11.006053954103236
676,10.71457089208449
1002,0.0
1004,0.0
1008,0.0
1010,0.0
1014,0.0
1016,0.0
2,5, 1, 5, 0,23, 0.00,60.00,Sunday
7,5.591666666666666
594,6.445578175382754
635,10.675406242251393
676,10.344037877179444
1002,0.0
1004,0.0
1008,0.0
1010,0.0
1014,0.0
1016,0.0
2,5, 1, 5, 0,24, 0.00,60.00,Sunday
7,4.891666666666666
594,5.843293467687649
635,10.334631588222008
676,9.96027532050572
1002,0.0
1004,0.0
1008,0.0
1010,0.0
1014,0.0
1016,0.0
2,6, 1, 6, 0, 1, 0.00,60.00,Monday
7,4.191666666666666
594,5.152637533379155
635,9.85892300649275
676,9.477247000192584
1002,0.0
1004,0.0
1008,0.0
1010,0.0
1014,0.0
1016,0.0
2,6, 1, 6, 0, 2, 0.00,60.00,Monday
7,3.5500000000000004
594,4.401120701688608
635,9.070550691329114
676,8.762831937472653
1002,0.0
1004,0.0
1008,0.0
1010,0.0
1014,0.0
1016,0.0
2,6, 1, 6, 0, 3, 0.00,60.00,Monday
7,2.9500000000000008
594,3.716992214134106
635,8.382611061835944
676,8.11287351892296
1002,0.0
1004,0.0
1008,0.0
1010,0.0
1014,0.0
1016,0.0
2,6, 1, 6, 0, 4, 0.00,60.00,Monday
7,2.4083333333333338
594,3.0568356969439209
635,8.026466639931352
676,7.706290169670079
1002,0.0
1004,0.0
1008,0.0
1010,0.0
1014,0.0
1016,0.0
2,6, 1, 6, 0, 5, 0.00,60.00,Monday
7,1.9083333333333333
594,2.461015277645332
635,7.720051036409136
676,7.359179996584832
1002,0.0
1004,0.0
1008,0.0
1010,0.0
1014,0.0
1016,0.0
2,6, 1, 6, 0, 6, 0.00,60.00,Monday
7,1.5250000000000002
594,1.9318077942643258
635,7.454493277351255
676,7.0563965978199099
1002,0.0
1004,0.0
1008,0.0
1010,0.0
1014,0.0
1016,0.0
2,6, 1, 6, 0, 7, 0.00,60.00,Monday
7,1.2833333333333335
594,19.780494142013386
635,20.97339344240078
676,20.41649197032068
1002,1.794782448607944
1004,0.9097490832268086
1008,1.68229934911251
1010,0.6825555997163949
1014,1.7700602237696342
1016,0.8778655667222833
2,6, 1, 6, 0, 8, 0.00,60.00,Monday
7,1.2
594,21.951850736238755
635,22.00056314561081
676,22.000436916558674
1002,1.7128147365742326
1004,0.7866966902014339
1008,1.3991484568019364
1010,0.41480634521264428
1014,1.5555848469948817
1016,0.5673279411845255
2,6, 1, 6, 0, 9, 0.00,60.00,Monday
7,1.375
594,22.000146343891705
635,22.000516149824795
676,22.000455303302706
1002,1.5456141274903359
1004,0.5332101963709502
1008,1.1603275344372575
1010,0.28827753786897677
1014,1.3949020347549875
1016,0.42159615958061216
2,6, 1, 6, 0,10, 0.00,60.00,Monday
7,2.025
594,22.001919102326139
635,22.00033402572663
676,22.000512286953197
1002,1.1965581384864335
1004,0.2999571600088821
1008,0.9911389120118788
1010,0.25
1014,1.1960274898867032
1016,0.3015689093835811
2,6, 1, 6, 0,11, 0.00,60.00,Monday
7,3.216666666666667
594,22.001953470696596
635,22.012929328240636
676,22.082712653737123
1002,1.0287360996792159
1004,0.25
1008,0.5210757332917598
1010,0.16666666666666667
1014,0.6365082446671041
1016,0.16666666666666667
2,6, 1, 6, 0,12, 0.00,60.00,Monday
7,4.675000000000001
594,22.000412244852329
635,22.113315444236617
676,24.453618109362158
1002,1.172683163340447
1004,0.25
1008,0.30496559782254548
1010,0.041666666666666667
1014,0.0
1016,0.0
2,6, 1, 6, 0,13, 0.00,60.00,Monday
7,6.058333333333334
594,22.001717991760434
635,22.00072603209789
676,25.472986417074379
1002,1.8433681506903062
1004,0.25
1008,1.8862919702458428
1010,0.25
1014,0.0
1016,0.0
2,6, 1, 6, 0,14, 0.00,60.00,Monday
7,7.125
594,22.793973294062636
635,22.00034067670408
676,25.83992537440908
1002,0.300731282955801
1004,0.041666666666666667
1008,1.851459078939983
1010,0.25
1014,1.3033600373051464
1016,0.16666666666666667
2,6, 1, 6, 0,15, 0.00,60.00,Monday
7,7.675
594,23.408908543170239
635,22.00031404727024
676,25.910197201838235
1002,0.0
1004,0.0
1008,1.8527101747746518
1010,0.25
1014,1.2462349529276982
1016,0.16666666666666667
2,6, 1, 6, 0,16, 0.00,60.00,Monday
7,7.799999999999998
594,22.04219673480206
635,22.000836697397977
676,23.101913793470446
1002,1.541412857755078
1004,0.20833333333333335
1008,1.929979054030819
1010,0.25
1014,0.7757053405633827
1016,0.10416666666666667
2,6, 1, 6, 0,17, 0.00,60.00,Monday
7,7.625
594,22.00396604485114
635,22.00202946493725
676,22.001480513601309
1002,1.932015724507484
1004,0.25
1008,1.9918664562344413
1010,0.25
1014,1.956168559769129
1016,0.25
2,6, 1, 6, 0,18, 0.00,60.00,Monday
7,7.266666666666667
594,22.00622661877757
635,22.00263614480215
676,22.002225627130416
1002,2.035673747535115
1004,0.25
1008,2.047604656636267
1010,0.25
1014,2.0524044305746504
1016,0.25
2,6, 1, 6, 0,19, 0.00,60.00,Monday